 Gaussian 16, Revision A.03,
 Gaussian 16:  ES64L-G16RevA.03 25-Dec-2016

 -----------------------------------------------------
 # opt freq geom=connectivity int=ultrafine m062x tzvp
 -----------------------------------------------------

 -------------------
 Title Card Required
 -------------------
 Symbolic Z-matrix:
 Charge =  0 Multiplicity = 1

 SCF Done:  E(RM062X) =  -14221.7523435     A.U. after   11 cycles
 SCF Done:  E(RM062X) =  -14221.8124934     A.U. after   10 cycles
 SCF Done:  E(RM062X) =  -14221.9088108     A.U. after   10 cycles
 SCF Done:  E(RM062X) =  -14221.9725873     A.U. after   10 cycles
 SCF Done:  E(RM062X) =  -14221.9970786     A.U. after    9 cycles
 SCF Done:  E(RM062X) =  -14222.0165040     A.U. after   10 cycles
 SCF Done:  E(RM062X) =  -14222.0310645     A.U. after   10 cycles
 SCF Done:  E(RM062X) =  -14222.0411393     A.U. after    9 cycles
 SCF Done:  E(RM062X) =  -14222.0625990     A.U. after   10 cycles
 SCF Done:  E(RM062X) =  -14222.0765942     A.U. after    9 cycles
 SCF Done:  E(RM062X) =  -14222.0976993     A.U. after    7 cycles
 SCF Done:  E(RM062X) =  -14222.0977699     A.U. after    8 cycles
 SCF Done:  E(RM062X) =  -14222.0977978     A.U. after    7 cycles
 SCF Done:  E(RM062X) =  -14222.0978320     A.U. after    8 cycles
 SCF Done:  E(RM062X) =  -14222.0978427     A.U. after    7 cycles
 SCF Done:  E(RM062X) =  -14222.0978481     A.U. after    7 cycles
 SCF Done:  E(RM062X) =  -14222.0978499     A.U. after    6 cycles
 SCF Done:  E(RM062X) =  -14222.0978512     A.U. after    6 cycles
 SCF Done:  E(RM062X) =  -14222.0978518     A.U. after    6 cycles
 Optimization completed.
    -- Stationary point found.
 Normal termination of Gaussian 16 at Fri Jan  8 14:54:55 2021.

 ----------------------------------------------------------------
 #N Geom=AllCheck Guess=TCheck SCRF=Check GenChk RM062X/TZVP Freq
 ----------------------------------------------------------------

 Structure from the checkpoint file:  "/home/peter/1_qua_n4q6.chk"
 -------------------
 Title Card Required
 -------------------
 Charge =  0 Multiplicity = 1

                         Standard orientation:
 ---------------------------------------------------------------------
 Center     Atomic      Atomic             Coordinates (Angstroms)
 Number     Number       Type             X           Y           Z
 ---------------------------------------------------------------------
      1         12           0       -0.541538   -1.837385   -0.106985
      2         17           0        0.891236   -0.360024    1.356058
      3         17           0       -1.918138   -3.031768   -1.649204
      4         17           0       -2.770448   -1.346011    0.987957
      5         17           0       -0.891204    0.360038   -1.356111
      6         12           0       -3.251512    0.852138   -0.543857
      7         12           0        0.541562    1.837389    0.106919
      8         17           0       -4.319952   -0.788657   -2.011618
      9         17           0       -1.751978    2.520842    1.115088
     10         17           0        1.918114    3.031781    1.649188
     11         17           0        1.751968   -2.520862   -1.115142
     12         17           0       -0.036245   -3.833615    1.379885
     13         17           0        2.770486    1.346049   -0.987989
     14         12           0        3.251560   -0.852106    0.543909
     15         17           0        0.036248    3.833632   -1.379914
     16         17           0        5.008108   -1.420027   -0.996052
     17         17           0        4.319936    0.788728    2.011643
     18         17           0       -5.008125    1.420041    0.996044
     19         17           0        5.978250    1.887001   -0.674599
     20         17           0       -5.978175   -1.887024    0.674703
     21         17           0       -7.549707    0.638449   -1.282413
     22         17           0       -3.332684    2.973178   -1.836681
     23         17           0        8.091650   -0.380185   -2.303159
     24         17           0        3.332688   -2.973181    1.836648
     25         17           0        2.544103   -5.930147   -0.092037
     26         17           0       -4.673293   -4.479409   -0.654905
     27         17           0       -8.091561    0.380110    2.303323
     28         17           0       -2.544105    5.930139    0.092029
     29         17           0        4.673205    4.479464    0.654703
     30         17           0        7.549590   -0.638568    1.282543
     31         13           0        1.952604   -4.052024    0.531101
     32         13           0       -3.958415   -2.511875   -0.649726
     33         13           0       -6.849281    0.164868    0.637919
     34         13           0       -1.952608    4.052029   -0.531146
     35         13           0        3.958386    2.511913    0.649699
     36         13           0        6.849289   -0.164914   -0.637819
 ---------------------------------------------------------------------

 SCF Done:  E(RM062X) =  -14222.0978518     A.U. after    1 cycles

 The electronic state is 1-A.
 Alpha  occ. eigenvalues -- -102.75388-102.75388-102.74772-102.74772-102.73774
 Alpha  occ. eigenvalues -- -102.73774-102.73563-102.73563-102.73364-102.73364
 Alpha  occ. eigenvalues -- -102.72768-102.72768-102.71416-102.71416-102.70506
 Alpha  occ. eigenvalues -- -102.70506-102.70342-102.70342-102.69737-102.69737
 Alpha  occ. eigenvalues -- -102.67521-102.67520-102.66148-102.66148-102.65884
 Alpha  occ. eigenvalues -- -102.65884 -57.01898 -57.01898 -57.01727 -57.01727
 Alpha  occ. eigenvalues --  -56.97241 -56.97241 -47.72463 -47.72463 -47.71763
 Alpha  occ. eigenvalues --  -47.71763  -9.89815  -9.89815  -9.89204  -9.89204
 Alpha  occ. eigenvalues --   -9.88201  -9.88201  -9.88040  -9.88040  -9.87800
 Alpha  occ. eigenvalues --   -9.87800  -9.87204  -9.87204  -9.85893  -9.85893
 Alpha  occ. eigenvalues --   -9.84964  -9.84964  -9.84810  -9.84810  -9.84157
 Alpha  occ. eigenvalues --   -9.84156  -9.81961  -9.81960  -9.80595  -9.80595
 Alpha  occ. eigenvalues --   -9.80329  -9.80329  -7.61803  -7.61803  -7.61672
 Alpha  occ. eigenvalues --   -7.61672  -7.61630  -7.61630  -7.61181  -7.61181
 Alpha  occ. eigenvalues --   -7.61065  -7.61064  -7.61029  -7.61029  -7.60236
 Alpha  occ. eigenvalues --   -7.60236  -7.60095  -7.60095  -7.59985  -7.59984
 Alpha  occ. eigenvalues --   -7.59959  -7.59959  -7.59929  -7.59929  -7.59867
 Alpha  occ. eigenvalues --   -7.59867  -7.59837  -7.59837  -7.59684  -7.59684
 Alpha  occ. eigenvalues --   -7.59532  -7.59532  -7.59233  -7.59233  -7.59115
 Alpha  occ. eigenvalues --   -7.59115  -7.58917  -7.58917  -7.57933  -7.57933
 Alpha  occ. eigenvalues --   -7.57783  -7.57783  -7.57634  -7.57634  -7.57028
 Alpha  occ. eigenvalues --   -7.57028  -7.56817  -7.56817  -7.56816  -7.56816
 Alpha  occ. eigenvalues --   -7.56722  -7.56722  -7.56701  -7.56700  -7.56548
 Alpha  occ. eigenvalues --   -7.56548  -7.56256  -7.56256  -7.55926  -7.55925
 Alpha  occ. eigenvalues --   -7.55915  -7.55915  -7.54066  -7.54066  -7.53757
 Alpha  occ. eigenvalues --   -7.53756  -7.53683  -7.53683  -7.52684  -7.52683
 Alpha  occ. eigenvalues --   -7.52422  -7.52422  -7.52377  -7.52377  -7.52368
 Alpha  occ. eigenvalues --   -7.52368  -7.52108  -7.52108  -7.52097  -7.52097
 Alpha  occ. eigenvalues --   -4.52043  -4.52043  -4.51782  -4.51781  -4.47544
 Alpha  occ. eigenvalues --   -4.47544  -3.47117  -3.47117  -3.46452  -3.46452
 Alpha  occ. eigenvalues --   -3.02432  -3.02432  -3.02385  -3.02385  -3.02330
 Alpha  occ. eigenvalues --   -3.02330  -3.02226  -3.02226  -3.02113  -3.02113
 Alpha  occ. eigenvalues --   -3.02080  -3.02079  -2.97949  -2.97949  -2.97886
 Alpha  occ. eigenvalues --   -2.97886  -2.97814  -2.97814  -2.16420  -2.16420
 Alpha  occ. eigenvalues --   -2.16349  -2.16349  -2.16313  -2.16313  -2.15770
 Alpha  occ. eigenvalues --   -2.15769  -2.15693  -2.15689  -2.15648  -2.15648
 Alpha  occ. eigenvalues --   -1.02067  -1.01760  -1.00974  -1.00904  -0.99065
 Alpha  occ. eigenvalues --   -0.99063  -0.98961  -0.98535  -0.98449  -0.98216
 Alpha  occ. eigenvalues --   -0.98136  -0.98008  -0.97108  -0.97106  -0.95770
 Alpha  occ. eigenvalues --   -0.95769  -0.95668  -0.95663  -0.95000  -0.94998
 Alpha  occ. eigenvalues --   -0.92645  -0.92644  -0.91751  -0.91751  -0.90869
 Alpha  occ. eigenvalues --   -0.90869  -0.60189  -0.60079  -0.59525  -0.59380
 Alpha  occ. eigenvalues --   -0.56967  -0.56925  -0.56686  -0.55903  -0.55681
 Alpha  occ. eigenvalues --   -0.55067  -0.54729  -0.54461  -0.54373  -0.53947
 Alpha  occ. eigenvalues --   -0.53859  -0.52841  -0.52802  -0.52385  -0.51902
 Alpha  occ. eigenvalues --   -0.51501  -0.51257  -0.51188  -0.50557  -0.50464
 Alpha  occ. eigenvalues --   -0.49978  -0.49821  -0.49635  -0.49205  -0.49203
 Alpha  occ. eigenvalues --   -0.48815  -0.48622  -0.48240  -0.48191  -0.47975
 Alpha  occ. eigenvalues --   -0.47654  -0.47342  -0.47312  -0.47153  -0.47088
 Alpha  occ. eigenvalues --   -0.46801  -0.46744  -0.46597  -0.46578  -0.46420
 Alpha  occ. eigenvalues --   -0.46278  -0.45964  -0.45774  -0.45531  -0.45377
 Alpha  occ. eigenvalues --   -0.45310  -0.44662  -0.44568  -0.44403  -0.44364
 Alpha  occ. eigenvalues --   -0.44136  -0.44091  -0.43405  -0.43353  -0.43169
 Alpha  occ. eigenvalues --   -0.43145  -0.43056  -0.43029  -0.42823  -0.42821
 Alpha  occ. eigenvalues --   -0.42235  -0.42232  -0.41389  -0.41387  -0.40334
 Alpha  occ. eigenvalues --   -0.40327  -0.39947  -0.39917  -0.39428  -0.39412
 Alpha  occ. eigenvalues --   -0.39051  -0.39042  -0.38485  -0.38484
 Alpha virt. eigenvalues --   -0.06351  -0.04212  -0.03577  -0.02906  -0.02842
 Alpha virt. eigenvalues --   -0.01950  -0.01718  -0.01330  -0.01019  -0.00630
 Alpha virt. eigenvalues --    0.00692   0.01374   0.01858   0.02096   0.02880

 Mulliken charges:
               1
     1  Mg   1.087439
     2  Cl  -0.605183
     3  Cl  -0.386261
     4  Cl  -0.422757
     5  Cl  -0.605180
     6  Mg   1.099108
     7  Mg   1.087438
     8  Cl  -0.313640
     9  Cl  -0.382331
    10  Cl  -0.386258
    11  Cl  -0.382328
    12  Cl  -0.296105
    13  Cl  -0.422742
    14  Mg   1.099118
    15  Cl  -0.296103
    16  Cl  -0.391883
    17  Cl  -0.313639
    18  Cl  -0.391887
    19  Cl  -0.294969
    20  Cl  -0.294963
    21  Cl  -0.281016
    22  Cl  -0.291645
    23  Cl  -0.263599
    24  Cl  -0.291652
    25  Cl  -0.201923
    26  Cl  -0.228689
    27  Cl  -0.263600
    28  Cl  -0.201921
    29  Cl  -0.228685
    30  Cl  -0.281019
    31  Al   0.702471
    32  Al   0.755673
    33  Al   0.715301
    34  Al   0.702472
    35  Al   0.755665
    36  Al   0.715294
 Sum of Mulliken charges =  -0.00000

 Dipole moment (field-independent basis, Debye):
    X=              0.0003    Y=              0.0004    Z=              0.0001  Tot=              0.0004
 Quadrupole moment (field-independent basis, Debye-Ang):
   XX=           -567.0780   YY=           -477.1393   ZZ=           -471.3329
   XY=             -9.4893   XZ=             12.4154   YZ=            -10.3660

  Exact polarizability: 498.148  -5.851 457.881  -9.970   8.074 352.912
 Approx polarizability: 506.420  -2.848 519.132  -7.768   7.761 480.758

                      1                      2                      3
                      A                      A                      A
 Frequencies --     13.1671                17.4316                21.1726
 Red. masses --     33.4983                34.0141                34.1355
 Frc consts  --      0.0034                 0.0061                 0.0090
 IR Inten    --      0.6849                 0.2230                 0.0000

                      4                      5                      6
                      A                      A                      A
 Frequencies --     23.5275                25.6924                28.5410
 Red. masses --     34.1598                34.4000                33.9696
 Frc consts  --      0.0111                 0.0134                 0.0163
 IR Inten    --      0.4454                 0.0000                 0.8010

                      7                      8                      9
                      A                      A                      A
 Frequencies --     30.6021                32.6390                36.7478
 Red. masses --     33.5222                34.1070                34.0139
 Frc consts  --      0.0185                 0.0214                 0.0271
 IR Inten    --      1.1817                 0.0000                 0.0000

                     10                     11                     12
                      A                      A                      A
 Frequencies --     38.3610                40.8392                44.9146
 Red. masses --     33.9301                33.4977                33.0516
 Frc consts  --      0.0294                 0.0329                 0.0393
 IR Inten    --      0.5768                 1.3753                 0.0000

                     13                     14                     15
                      A                      A                      A
 Frequencies --     46.1563                53.9373                58.0793
 Red. masses --     33.8604                32.0571                32.2236
 Frc consts  --      0.0425                 0.0549                 0.0640
 IR Inten    --      0.0000                 4.3069                 0.0000

                     16                     17                     18
                      A                      A                      A
 Frequencies --     62.9269                68.4006                71.4278
 Red. masses --     33.0180                34.1722                32.9923
 Frc consts  --      0.0770                 0.0942                 0.0992
 IR Inten    --      0.0000                 8.1229                 0.0000

                     19                     20                     21
                      A                      A                      A
 Frequencies --     78.7673                79.0475                84.5684
 Red. masses --     33.4058                34.0617                32.4880
 Frc consts  --      0.1221                 0.1254                 0.1369
 IR Inten    --      0.0000                 1.2423                 9.7105

                     22                     23                     24
                      A                      A                      A
 Frequencies --     85.2551                88.4250                94.5448
 Red. masses --     31.2374                33.1231                32.5916
 Frc consts  --      0.1338                 0.1526                 0.1716
 IR Inten    --      0.0000                 0.0000                16.5842

                     25                     26                     27
                      A                      A                      A
 Frequencies --     97.8050                99.5642               100.1961
 Red. masses --     31.6771                32.6976                31.3668
 Frc consts  --      0.1785                 0.1910                 0.1855
 IR Inten    --      7.5585                 1.5569                 0.0001

                     28                     29                     30
                      A                      A                      A
 Frequencies --    104.5800               106.2625               108.4386
 Red. masses --     34.2551                33.9632                33.4463
 Frc consts  --      0.2207                 0.2260                 0.2317
 IR Inten    --      0.0000                 0.8418                 0.0000

                     31                     32                     33
                      A                      A                      A
 Frequencies --    109.8383               111.1538               117.8249
 Red. masses --     32.8449                32.7802                32.7916
 Frc consts  --      0.2335                 0.2386                 0.2682
 IR Inten    --     11.3868                 0.0000                 3.6125

                     34                     35                     36
                      A                      A                      A
 Frequencies --    122.2018               128.3308               131.9378
 Red. masses --     31.5055                33.1506                33.0086
 Frc consts  --      0.2772                 0.3217                 0.3385
 IR Inten    --      0.0000                 0.0000                 3.0500

                     37                     38                     39
                      A                      A                      A
 Frequencies --    136.1446               140.0914               142.6095
 Red. masses --     32.8611                33.0904                33.9527
 Frc consts  --      0.3589                 0.3826                 0.4068
 IR Inten    --      0.0000                 5.0618                 6.3490

                     40                     41                     42
                      A                      A                      A
 Frequencies --    144.7442               146.9497               151.3096
 Red. masses --     32.6849                32.4548                32.4076
 Frc consts  --      0.4035                 0.4129                 0.4371
 IR Inten    --      0.0000                 6.4182                 0.0000

                     43                     44                     45
                      A                      A                      A
 Frequencies --    152.8976               155.6474               166.4855
 Red. masses --     32.3138                32.3976                32.4837
 Frc consts  --      0.4451                 0.4624                 0.5305
 IR Inten    --     32.2660                 0.0000                 9.0861

                     46                     47                     48
                      A                      A                      A
 Frequencies --    166.9639               167.1904               173.3009
 Red. masses --     32.1081                32.0609                33.2760
 Frc consts  --      0.5274                 0.5280                 0.5888
 IR Inten    --      0.0007                32.5962                74.0792

                     49                     50                     51
                      A                      A                      A
 Frequencies --    177.2198               179.1144               180.5671
 Red. masses --     32.9185                32.5554                32.9493
 Frc consts  --      0.6091                 0.6154                 0.6330
 IR Inten    --      0.0000                 0.0000                 9.4121

                     52                     53                     54
                      A                      A                      A
 Frequencies --    182.1937               189.2346               193.5622
 Red. masses --     33.2191                32.3711                32.2129
 Frc consts  --      0.6497                 0.6830                 0.7111
 IR Inten    --      0.0000                23.5986                36.1828

                     55                     56                     57
                      A                      A                      A
 Frequencies --    194.1758               200.1383               202.0184
 Red. masses --     33.7113                32.6157                33.9553
 Frc consts  --      0.7489                 0.7697                 0.8165
 IR Inten    --      0.0001                 0.0000                 5.6456

                     58                     59                     60
                      A                      A                      A
 Frequencies --    203.7379               207.7882               213.1385
 Red. masses --     33.4520                31.8581                30.5911
 Frc consts  --      0.8181                 0.8104                 0.8188
 IR Inten    --      0.0000                 0.0000                13.0701

                     61                     62                     63
                      A                      A                      A
 Frequencies --    215.9139               216.7863               221.7860
 Red. masses --     33.4470                32.1353                33.2387
 Frc consts  --      0.9187                 0.8898                 0.9633
 IR Inten    --     66.6707                 0.0003                16.9694

                     64                     65                     66
                      A                      A                      A
 Frequencies --    224.1540               240.2535               247.7542
 Red. masses --     32.3258                32.7079                30.8527
 Frc consts  --      0.9570                 1.1124                 1.1158
 IR Inten    --      0.0000                 0.0000                37.7505

                     67                     68                     69
                      A                      A                      A
 Frequencies --    250.2003               253.3578               257.5693
 Red. masses --     31.0092                31.7305                31.7470
 Frc consts  --      1.1437                 1.2000                 1.2409
 IR Inten    --      0.0000                31.9480                 0.0000

                     70                     71                     72
                      A                      A                      A
 Frequencies --    260.6605               267.0815               272.8724
 Red. masses --     32.0615                29.7810                28.1255
 Frc consts  --      1.2835                 1.2516                 1.2339
 IR Inten    --     17.0408                23.0985                 0.0000

                     73                     74                     75
                      A                      A                      A
 Frequencies --    285.7334               306.3622               307.3507
 Red. masses --     29.9235                30.7239                32.9638
 Frc consts  --      1.4394                 1.6990                 1.8347
 IR Inten    --      0.0000               272.3103                 0.0019

                     76                     77                     78
                      A                      A                      A
 Frequencies --    311.3933               318.9199               319.0518
 Red. masses --     30.0931                27.2353                26.8928
 Frc consts  --      1.7192                 1.6321                 1.6129
 IR Inten    --    101.9007                 0.0002               717.0725

                     79                     80                     81
                      A                      A                      A
 Frequencies --    327.7200               336.6405               344.4419
 Red. masses --     28.6063                30.5543                34.2506
 Frc consts  --      1.8102                 2.0401                 2.3941
 IR Inten    --    408.4218                 0.0000                 0.0000

                     82                     83                     84
                      A                      A                      A
 Frequencies --    345.6720               348.0900               354.6873
 Red. masses --     34.1639                32.4069                30.0126
 Frc consts  --      2.4052                 2.3135                 2.2246
 IR Inten    --     65.6637               253.5647                 0.0000

                     85                     86                     87
                      A                      A                      A
 Frequencies --    373.8303               381.6423               391.4251
 Red. masses --     27.0267                26.9174                29.5152
 Frc consts  --      2.2253                 2.3099                 2.6644
 IR Inten    --      0.0000               233.6904                78.4022

                     88                     89                     90
                      A                      A                      A
 Frequencies --    396.3020               411.8261               414.5642
 Red. masses --     29.4520                29.3526                29.4499
 Frc consts  --      2.7253                 2.9331                 2.9821
 IR Inten    --      0.0000                 0.0000               363.2616

                     91                     92                     93
                      A                      A                      A
 Frequencies --    427.3464               435.6284               485.9025
 Red. masses --     29.2151                28.9022                29.1693
 Frc consts  --      3.1435                 3.2316                 4.0577
 IR Inten    --      0.0000               352.9226                 0.1436

                     94                     95                     96
                      A                      A                      A
 Frequencies --    486.0640               503.1861               503.3215
 Red. masses --     29.2311                29.7189                29.6803
 Frc consts  --      4.0690                 4.4334                 4.4301
 IR Inten    --    444.1657                 0.0001               267.3438

                     97                     98                     99
                      A                      A                      A
 Frequencies --    584.5778               585.2249               609.4417
 Red. masses --     29.0434                29.0365                29.0958
 Frc consts  --      5.8477                 5.8592                 6.3671
 IR Inten    --    407.4503                 0.0020                 0.0201

                    100                    101                    102
                      A                      A                      A
 Frequencies --    609.6898               613.7441               615.3259
 Red. masses --     29.0950                29.1395                29.1424
 Frc consts  --      6.3722                 6.4671                 6.5011
 IR Inten    --    357.4485               433.9703                 0.0006

 - Thermochemistry -
 -------------------
 Temperature   298.150 Kelvin.  Pressure   1.00000 Atm.
 Atom     1 has atomic number 12 and mass  23.98504

 Molecular mass:  1167.01960 amu.
 Principal axes and moments of inertia in atomic units:
                           1         2         3
     Eigenvalues --  ******************************
           X            1.00000  -0.00022   0.00014
           Y            0.00022   1.00000  -0.00003
           Z           -0.00014   0.00003   1.00000
 This molecule is an asymmetric top.
 Rotational symmetry number  1.
 Warning -- assumption of classical behavior for rotation
           may cause significant error
 Rotational temperatures (Kelvin)      0.00232     0.00102     0.00079
 Rotational constants (GHZ):           0.04837     0.02117     0.01647
 Zero-point vibrational energy     133946.0 (Joules/Mol)
                                   32.01387 (Kcal/Mol)
 Warning -- explicit consideration of 102 degrees of freedom as
           vibrations may cause significant error
 Vibrational temperatures:     18.94    25.08    30.46    33.85    36.97
          (Kelvin)             41.06    44.03    46.96    52.87    55.19
                               58.76    64.62    66.41    77.60    83.56
                               90.54    98.41   102.77   113.33   113.73
                              121.68   122.66   127.22   136.03   140.72
                              143.25   144.16   150.47   152.89   156.02
                              158.03   159.93   169.52   175.82   184.64
                              189.83   195.88   201.56   205.18   208.25
                              211.43   217.70   219.99   223.94   239.54
                              240.22   240.55   249.34   254.98   257.71
                              259.80   262.14   272.27   278.49   279.38
                              287.95   290.66   293.13   298.96   306.66
                              310.65   311.91   319.10   322.51   345.67
                              356.46   359.98   364.53   370.58   375.03
                              384.27   392.60   411.11   440.79   442.21
                              448.03   458.85   459.04   471.52   484.35
                              495.58   497.34   500.82   510.32   537.86
                              549.10   563.17   570.19   592.53   596.47
                              614.86   626.77   699.11   699.34   723.97
                              724.17   841.08   842.01   876.85   877.21
                              883.04   885.32

 Zero-point correction=                           0.051017 (Hartree/Particle)
 Thermal correction to Energy=                    0.111851
 Thermal correction to Enthalpy=                  0.112795
 Thermal correction to Gibbs Free Energy=        -0.056386
 Sum of electronic and zero-point Energies=         -14222.046834
 Sum of electronic and thermal Energies=            -14221.986001
 Sum of electronic and thermal Enthalpies=          -14221.985057
 Sum of electronic and thermal Free Energies=       -14222.154238

                     E (Thermal)             CV                S
                      KCal/Mol        Cal/Mol-Kelvin    Cal/Mol-Kelvin
 Total                   70.187            185.227            356.072
 Electronic               0.000              0.000              0.000
 Translational            0.889              2.981             47.042
 Rotational               0.889              2.981             41.073
 Vibrational             68.410            179.266            267.957
 Vibration     1          0.593              1.987              7.464
 Vibration     2          0.593              1.986              6.907
 Vibration     3          0.593              1.985              6.521
 Vibration     4          0.593              1.985              6.312
 Vibration     5          0.593              1.985              6.137
 Vibration     6          0.593              1.984              5.928
 Vibration     7          0.594              1.984              5.790
 Vibration     8          0.594              1.983              5.662
 Vibration     9          0.594              1.982              5.427
 Vibration    10          0.594              1.982              5.342
 Vibration    11          0.594              1.981              5.218
 Vibration    12          0.595              1.979              5.030
 Vibration    13          0.595              1.979              4.976
 Vibration    14          0.596              1.976              4.668
 Vibration    15          0.596              1.974              4.521
 Vibration    16          0.597              1.972              4.363
 Vibration    17          0.598              1.969              4.199
 Vibration    18          0.598              1.968              4.114
 Vibration    19          0.600              1.963              3.921
 Vibration    20          0.600              1.963              3.914
 Vibration    21          0.601              1.960              3.782
 Vibration    22          0.601              1.959              3.766
 Vibration    23          0.601              1.957              3.695
 Vibration    24          0.603              1.953              3.564
 Vibration    25          0.603              1.951              3.498
 Vibration    26          0.604              1.949              3.463
 Vibration    27          0.604              1.949              3.450
 Vibration    28          0.605              1.946              3.367
 Vibration    29          0.605              1.944              3.336
 Vibration    30          0.606              1.942              3.297
 Vibration    31          0.606              1.941              3.272
 Vibration    32          0.607              1.940              3.249
 Vibration    33          0.608              1.935              3.136
 Vibration    34          0.610              1.931              3.065
 Vibration    35          0.611              1.925              2.971
 Vibration    36          0.612              1.921              2.918
 Vibration    37          0.614              1.917              2.857
 Vibration    38          0.615              1.913              2.803
 Vibration    39          0.616              1.911              2.769
 Vibration    40          0.616              1.908              2.740
 Vibration    41          0.617              1.906              2.711
 Vibration    42          0.619              1.901              2.656
 Vibration    43          0.619              1.899              2.636
 Vibration    44          0.620              1.896              2.602
 Vibration    45          0.624              1.884              2.475
 Vibration    46          0.624              1.883              2.469
 Vibration    47          0.624              1.883              2.467
 Vibration    48          0.627              1.875              2.399
 Vibration    49          0.628              1.870              2.357
 Vibration    50          0.629              1.868              2.338
 Vibration    51          0.630              1.866              2.323
 Vibration    52          0.630              1.864              2.306
 Vibration    53          0.633              1.855              2.235
 Vibration    54          0.635              1.849              2.193
 Vibration    55          0.635              1.848              2.188
 Vibration    56          0.638              1.840              2.132
 Vibration    57          0.639              1.837              2.115
 Vibration    58          0.639              1.835              2.099
 Vibration    59          0.641              1.829              2.063
 Vibration    60          0.644              1.821              2.017
 Vibration    61          0.645              1.817              1.993
 Vibration    62          0.646              1.815              1.986
 Vibration    63          0.648              1.808              1.944
 Vibration    64          0.649              1.804              1.925
 Vibration    65          0.657              1.779              1.801
 Vibration    66          0.661              1.766              1.747
 Vibration    67          0.663              1.762              1.729
 Vibration    68          0.665              1.757              1.707
 Vibration    69          0.667              1.750              1.678
 Vibration    70          0.669              1.745              1.657
 Vibration    71          0.672              1.734              1.615
 Vibration    72          0.676              1.723              1.578
 Vibration    73          0.684              1.700              1.499
 Vibration    74          0.697              1.662              1.382
 Vibration    75          0.697              1.660              1.377
 Vibration    76          0.700              1.652              1.355
 Vibration    77          0.705              1.637              1.316
 Vibration    78          0.705              1.637              1.315
 Vibration    79          0.711              1.620              1.271
 Vibration    80          0.717              1.602              1.228
 Vibration    81          0.723              1.587              1.191
 Vibration    82          0.724              1.584              1.186
 Vibration    83          0.726              1.579              1.175
 Vibration    84          0.731              1.566              1.145
 Vibration    85          0.745              1.526              1.064
 Vibration    86          0.751              1.509              1.033
 Vibration    87          0.759              1.489              0.995
 Vibration    88          0.763              1.478              0.976
 Vibration    89          0.776              1.445              0.920
 Vibration    90          0.778              1.439              0.911
 Vibration    91          0.789              1.411              0.867
 Vibration    92          0.796              1.393              0.840
 Vibration    93          0.842              1.281              0.694
 Vibration    94          0.842              1.281              0.694
 Vibration    95          0.858              1.243              0.650
 Vibration    96          0.859              1.243              0.650
 Vibration    97          0.942              1.065              0.477
 Vibration    98          0.942              1.063              0.476
 Vibration    99          0.968              1.012              0.434
 Vibration   100          0.969              1.011              0.433
 Vibration   101          0.973              1.003              0.427
 Vibration   102          0.975              0.999              0.424

                           ! Non-Optimized Parameters !
 Normal termination of Gaussian 16 at Fri Jan  8 15:25:56 2021.
